
     Program PWSCF v.5.0.2 (svn rev. 9392) starts on 21Nov2013 at  3:14:44 

     This program is part of the open-source Quantum ESPRESSO suite
     for quantum simulation of materials; please cite
         "P. Giannozzi et al., J. Phys.:Condens. Matter 21 395502 (2009);
          URL http://www.quantum-espresso.org", 
     in publications or presentations arising from this work. More details at
     http://www.quantum-espresso.org/quote.php

     Parallel version (MPI), running on    12 processors
     R & G space division:  proc/nbgrp/npool/nimage =      12

     Current dimensions of program PWSCF are:
     Max number of different atomic species (ntypx) = 10
     Max number of k-points (npk) =  40000
     Max angular momentum in pseudopotentials (lmaxx) =  3
     Waiting for input...
     Reading input from standard input
Warning: card  &IONS ignored
Warning: card  / ignored
               file C.pbe-n-kjpaw_psl.0.1.UPF: wavefunction(s)  2P renormalized
               file N.pbe-kjpaw.UPF: wavefunction(s)  2P renormalized
     EXX fraction changed:   0.25
     EXX Screening parameter changed:    0.1100000

     Atomic positions and unit cell read from directory:
     ./pwscf.save/
     Nothing found: using input atomic positions and unit cell


     gamma-point specific algorithms are used

     Subspace diagonalization in iterative solution of the eigenvalue problem:
     a serial algorithm will be used


     Parallelization info
     --------------------
     sticks:   dense  smooth     PW     G-vecs:    dense   smooth      PW
     Min        3481    3316    827               535315   497508   62199
     Max        3484    3318    830               535322   497578   62206
     Sum       41793   39805   9941              6423823  5970573  746429
     Tot       20897   19903   4971


     Title: 
     CuPcMol_Spin_SP_HSE06                                                      


     bravais-lattice index     =            0
     lattice parameter (alat)  =      50.0000  a.u.
     unit-cell volume          =  125000.0000 (a.u.)^3
     number of atoms/cell      =           57
     number of atomic types    =            4
     number of electrons       =       195.00
     number of Kohn-Sham states=          118
     kinetic-energy cutoff     =      50.0000  Ry
     charge density cutoff     =     210.0000  Ry
     convergence threshold     =      1.0E-06
     mixing beta               =       0.7000
     number of iterations used =            8  plain     mixing
     Exchange-correlation      =  SLA  PW   PBX  PBC ( 1 4 3 4 0)
     EXX-fraction              =        0.25

     celldm(1)=  50.000000  celldm(2)=   0.000000  celldm(3)=   0.000000
     celldm(4)=   0.000000  celldm(5)=   0.000000  celldm(6)=   0.000000

     crystal axes: (cart. coord. in units of alat)
               a(1) = (   1.000000   0.000000   0.000000 )  
               a(2) = (   0.000000   1.000000   0.000000 )  
               a(3) = (   0.000000   0.000000   1.000000 )  

     reciprocal axes: (cart. coord. in units 2 pi/alat)
               b(1) = (  1.000000  0.000000  0.000000 )  
               b(2) = (  0.000000  1.000000  0.000000 )  
               b(3) = (  0.000000  0.000000  1.000000 )  


     PseudoPot. # 1 for  H read from file:
     /users/d/b/dburrill/espresso-5.0.2/pseudo/H.pbe-kjpaw.UPF
     MD5 check sum: b6732a8c2b51919c45a22ac3ed50cb01
     Pseudo is Projector augmented-wave, Zval =  1.0
     Generated using "atomic" code by A. Dal Corso (espresso distribution)
     Shape of augmentation charge: PSQ
     Using radial grid of  929 points,  2 beta functions with: 
                l(1) =   0
                l(2) =   0
     Q(r) pseudized with 0 coefficients 


     PseudoPot. # 2 for  C read from file:
     /users/d/b/dburrill/espresso-5.0.2/pseudo/C.pbe-n-kjpaw_psl.0.1.UPF
     MD5 check sum: fa56c795beb32098f263166108773431
     Pseudo is Projector augmented-wave + core cor, Zval =  4.0
     Generated using "atomic" code by A. Dal Corso  v.5.0.2 svn rev. 9415
     Shape of augmentation charge: BESSEL
     Using radial grid of 1073 points,  4 beta functions with: 
                l(1) =   0
                l(2) =   0
                l(3) =   1
                l(4) =   1
     Q(r) pseudized with 0 coefficients 


     PseudoPot. # 3 for  N read from file:
     /users/d/b/dburrill/espresso-5.0.2/pseudo/N.pbe-kjpaw.UPF
     MD5 check sum: 8084b77d51c693b42c648c399e934a9c
     Pseudo is Projector augmented-wave + core cor, Zval =  5.0
     Generated using "atomic" code by A. Dal Corso  (Quantum ESPRESSO distribution)
     Shape of augmentation charge: BESSEL
     Using radial grid of 1085 points,  4 beta functions with: 
                l(1) =   0
                l(2) =   0
                l(3) =   1
                l(4) =   1
     Q(r) pseudized with 0 coefficients 


     PseudoPot. # 4 for Cu read from file:
     /users/d/b/dburrill/espresso-5.0.2/pseudo/Cu.pbe-kjpaw.UPF
     MD5 check sum: 45efc908aa001f5e7b7280b53012f488
     Pseudo is Projector augmented-wave + core cor, Zval = 11.0
     Generated using "atomic" code by A. Dal Corso (espresso distribution)
     Shape of augmentation charge: BESSEL
     Using radial grid of 1199 points,  6 beta functions with: 
                l(1) =   2
                l(2) =   2
                l(3) =   0
                l(4) =   0
                l(5) =   1
                l(6) =   1
     Q(r) pseudized with 0 coefficients 


     atomic species   valence    mass     pseudopotential
        H              1.00     1.00000      H( 1.00)
        C              4.00    12.00000      C( 1.00)
        N              5.00    14.00000      N( 1.00)
        Cu            11.00    63.50000     Cu( 1.00)

     Starting magnetic structure 
     atomic species   magnetization
        H            0.000
        C            0.000
        N            0.000
        Cu           1.000

      2 Sym. Ops. (no inversion) found



   Cartesian axes

     site n.     atom                  positions (alat units)
         1           N   tau(   1) = (   0.3809710   0.3797602   0.0000000  )
         2           C   tau(   2) = (   0.3391093   0.4106696   0.0000000  )
         3           C   tau(   3) = (   0.4237145   0.4094571   0.0000000  )
         4           C   tau(   4) = (   0.4088134   0.4625387   0.0000000  )
         5           C   tau(   5) = (   0.3555505   0.4632802   0.0000000  )
         6           N   tau(   6) = (   0.4542757   0.3042039   0.0000000  )
         7           N   tau(   7) = (   0.3055306   0.3063256   0.0000000  )
         8           N   tau(   8) = (   0.3788372   0.2307171   0.0000000  )
         9           C   tau(   9) = (   0.4851755   0.3460938   0.0000000  )
        10           C   tau(  10) = (   0.4839791   0.2614600   0.0000000  )
        11           C   tau(  11) = (   0.5370226   0.2764086   0.0000000  )
        12           C   tau(  12) = (   0.5377692   0.3296591   0.0000000  )
        13           N   tau(  13) = (   0.4715382   0.3943601   0.0000000  )
        14           C   tau(  14) = (   0.4366868   0.5073273   0.0000000  )
        15           C   tau(  15) = (   0.3288948   0.5087805   0.0000000  )
        16           C   tau(  16) = (   0.3568052   0.5535033   0.0000000  )
        17           C   tau(  17) = (   0.4099827   0.5527917   0.0000000  )
        18           C   tau(  18) = (   0.5832736   0.3563050   0.0000000  )
        19           C   tau(  19) = (   0.5817753   0.2485099   0.0000000  )
        20           C   tau(  20) = (   0.6272374   0.2751946   0.0000000  )
        21           C   tau(  21) = (   0.6279741   0.3283660   0.0000000  )
        22           C   tau(  22) = (   0.2758603   0.3490917   0.0000000  )
        23           C   tau(  23) = (   0.2746396   0.2644373   0.0000000  )
        24           C   tau(  24) = (   0.2220652   0.2809046   0.0000000  )
        25           C   tau(  25) = (   0.2228359   0.3341496   0.0000000  )
        26           C   tau(  26) = (   0.1781215   0.3620770   0.0000000  )
        27           C   tau(  27) = (   0.1765562   0.2542886   0.0000000  )
        28           C   tau(  28) = (   0.1318616   0.2822450   0.0000000  )
        29           C   tau(  29) = (   0.1326367   0.3354279   0.0000000  )
        30           N   tau(  30) = (   0.2908642   0.3969555   0.0000000  )
        31           C   tau(  31) = (   0.3360949   0.2010510   0.0000000  )
        32           C   tau(  32) = (   0.4207316   0.1998435   0.0000000  )
        33           C   tau(  33) = (   0.3510361   0.1480038   0.0000000  )
        34           C   tau(  34) = (   0.4043042   0.1472178   0.0000000  )
        35           C   tau(  35) = (   0.3230833   0.1032938   0.0000000  )
        36           C   tau(  36) = (   0.4308802   0.1016511   0.0000000  )
        37           C   tau(  37) = (   0.4028736   0.0569801   0.0000000  )
        38           C   tau(  38) = (   0.3497034   0.0577954   0.0000000  )
        39           N   tau(  39) = (   0.2882694   0.2161661   0.0000000  )
        40           N   tau(  40) = (   0.4689649   0.2135995   0.0000000  )
        41           H   tau(  41) = (   0.6629260   0.2545775   0.0000000  )
        42           H   tau(  42) = (   0.6642135   0.3479923   0.0000000  )
        43           H   tau(  43) = (   0.5835824   0.3974915   0.0000000  )
        44           H   tau(  44) = (   0.5809664   0.2073300   0.0000000  )
        45           H   tau(  45) = (   0.4720695   0.1011983   0.0000000  )
        46           H   tau(  46) = (   0.4224172   0.0206874   0.0000000  )
        47           H   tau(  47) = (   0.3290355   0.0221407   0.0000000  )
        48           H   tau(  48) = (   0.2819055   0.1042264   0.0000000  )
        49           H   tau(  49) = (   0.1763022   0.2131013   0.0000000  )
        50           H   tau(  50) = (   0.0956041   0.2626417   0.0000000  )
        51           H   tau(  51) = (   0.0969720   0.3560856   0.0000000  )
        52           H   tau(  52) = (   0.1790879   0.4032555   0.0000000  )
        53           H   tau(  53) = (   0.2877035   0.5090297   0.0000000  )
        54           H   tau(  54) = (   0.3371661   0.5897413   0.0000000  )
        55           H   tau(  55) = (   0.4305600   0.5885144   0.0000000  )
        56           H   tau(  56) = (   0.4778735   0.5065904   0.0000000  )
        57           Cu  tau(  57) = (   0.3798464   0.3051705   0.0000000  )

     number of k points=     2  gaussian smearing, width (Ry)=  0.0150
                       cart. coord. in units 2pi/alat
        k(    1) = (   0.0000000   0.0000000   0.0000000), wk =   1.0000000
        k(    2) = (   0.0000000   0.0000000   0.0000000), wk =   1.0000000

     Dense  grid:  3211912 G-vectors     FFT dimensions: ( 240, 240, 240)

     Smooth grid:  2985287 G-vectors     FFT dimensions: ( 225, 225, 225)

     Largest allocated arrays     est. size (Mb)     dimensions
        Kohn-Sham Wavefunctions        56.00 Mb     (  31100,  118)
        NL pseudopotentials           175.58 Mb     (  31100,  370)
        Each V/rho on FFT grid         35.16 Mb     (1152000,   2)
        Each G-vector array             2.04 Mb     ( 267659)
        G-vector shells                 0.08 Mb     (  10843)
     Largest temporary arrays     est. size (Mb)     dimensions
        Auxiliary wavefunctions       111.99 Mb     (  31100,  472)
        Each subspace H/S matrix        1.70 Mb     ( 472, 472)
        Each <psi_i|beta_j> matrix      0.33 Mb     (    370,  118)
        Arrays for rho mixing         140.62 Mb     (1152000,   8)
     Message from routine init_buffer:
     incorrect unit specified
     Cannot read wfc : file not found
     Cannot read rho : file not found

     Initial potential from superposition of free atoms
     Check: negative starting charge=(component1):   -0.038402
     Check: negative starting charge=(component2):   -0.013805

     starting charge  194.99819, renormalised to  195.00000

     negative rho (up, down):  0.384E-01 0.138E-01
     Starting wfc are  185 atomic wfcs
     Checking if some PAW data can be deallocated... 

     total cpu time spent up to now is      230.9 secs

     Self-consistent Calculation

     iteration #  1     ecut=    50.00 Ry     beta=0.70
     Davidson diagonalization with overlap
     WARNING:     2 eigenvalues not converged in regterg
     c_bands:  2 eigenvalues not converged
     WARNING:     5 eigenvalues not converged in regterg
     c_bands:  5 eigenvalues not converged
     ethr =  1.00E-05,  avg # of iterations = 20.0

     negative rho (up, down):  0.251E-01 0.863E-02

     total cpu time spent up to now is     1534.2 secs

     total energy              =   -1030.87266511 Ry
     Harris-Foulkes estimate   =   -1051.07291679 Ry
     estimated scf accuracy    <      25.13756672 Ry

     total magnetization       =     5.00 Bohr mag/cell
     absolute magnetization    =     5.16 Bohr mag/cell

     iteration #  2     ecut=    50.00 Ry     beta=0.70
     Davidson diagonalization with overlap
     ethr =  1.00E-02,  avg # of iterations =  8.5

     negative rho (up, down):  0.200E-01 0.130E-01

     total cpu time spent up to now is     2320.3 secs

     total energy              =   -1026.07507017 Ry
     Harris-Foulkes estimate   =   -1076.33139689 Ry
     estimated scf accuracy    <     158.39629474 Ry

     total magnetization       =     0.33 Bohr mag/cell
     absolute magnetization    =     2.87 Bohr mag/cell

     iteration #  3     ecut=    50.00 Ry     beta=0.70
     Davidson diagonalization with overlap
     ethr =  1.00E-02,  avg # of iterations =  7.5

     negative rho (up, down):  0.157E-01 0.154E-01

     total cpu time spent up to now is     2817.2 secs

     total energy              =   -1044.21628320 Ry
     Harris-Foulkes estimate   =   -1052.57776757 Ry
     estimated scf accuracy    <      26.04863394 Ry

     total magnetization       =     0.62 Bohr mag/cell
     absolute magnetization    =     1.32 Bohr mag/cell

     iteration #  4     ecut=    50.00 Ry     beta=0.70
     Davidson diagonalization with overlap
     ethr =  1.00E-02,  avg # of iterations =  3.5

     negative rho (up, down):  0.171E-01 0.176E-01

     total cpu time spent up to now is     3181.6 secs

     total energy              =   -1046.44324260 Ry
     Harris-Foulkes estimate   =   -1047.66577510 Ry
     estimated scf accuracy    <       4.41398275 Ry

     total magnetization       =    -0.19 Bohr mag/cell
     absolute magnetization    =     0.91 Bohr mag/cell

     iteration #  5     ecut=    50.00 Ry     beta=0.70
     Davidson diagonalization with overlap
     ethr =  2.26E-03,  avg # of iterations =  7.0

     negative rho (up, down):  0.195E-01 0.202E-01

     total cpu time spent up to now is     3650.6 secs

     total energy              =   -1047.11124571 Ry
     Harris-Foulkes estimate   =   -1047.54318682 Ry
     estimated scf accuracy    <       1.30003505 Ry

     total magnetization       =    -0.03 Bohr mag/cell
     absolute magnetization    =     0.87 Bohr mag/cell

     iteration #  6     ecut=    50.00 Ry     beta=0.70
     Davidson diagonalization with overlap
     ethr =  6.67E-04,  avg # of iterations = 10.0

     negative rho (up, down):  0.177E-01 0.139E-01

     total cpu time spent up to now is     4142.4 secs

     total energy              =   -1046.12546772 Ry
     Harris-Foulkes estimate   =   -1048.31044873 Ry
     estimated scf accuracy    <      14.94717926 Ry

     total magnetization       =     2.44 Bohr mag/cell
     absolute magnetization    =     2.83 Bohr mag/cell

     iteration #  7     ecut=    50.00 Ry     beta=0.70
     Davidson diagonalization with overlap
     ethr =  6.67E-04,  avg # of iterations = 11.5

     negative rho (up, down):  0.196E-01 0.178E-01

     total cpu time spent up to now is     4553.1 secs

     total energy              =   -1047.58290128 Ry
     Harris-Foulkes estimate   =   -1047.70019589 Ry
     estimated scf accuracy    <       0.82808608 Ry

     total magnetization       =    -0.02 Bohr mag/cell
     absolute magnetization    =     0.40 Bohr mag/cell

     iteration #  8     ecut=    50.00 Ry     beta=0.70
     Davidson diagonalization with overlap
     ethr =  4.25E-04,  avg # of iterations =  1.5

     negative rho (up, down):  0.201E-01 0.189E-01

     total cpu time spent up to now is     4901.2 secs

     total energy              =   -1047.60574936 Ry
     Harris-Foulkes estimate   =   -1047.61969804 Ry
     estimated scf accuracy    <       0.08422589 Ry

     total magnetization       =     0.39 Bohr mag/cell
     absolute magnetization    =     0.68 Bohr mag/cell

     iteration #  9     ecut=    50.00 Ry     beta=0.70
     Davidson diagonalization with overlap
     WARNING:     2 eigenvalues not converged in regterg
     c_bands:  2 eigenvalues not converged
     ethr =  4.32E-05,  avg # of iterations = 16.5

     negative rho (up, down):  0.201E-01 0.190E-01

     total cpu time spent up to now is     5538.2 secs

     total energy              =   -1047.63952051 Ry
     Harris-Foulkes estimate   =   -1047.64286783 Ry
     estimated scf accuracy    <       0.03343534 Ry

     total magnetization       =     0.64 Bohr mag/cell
     absolute magnetization    =     0.76 Bohr mag/cell

     iteration # 10     ecut=    50.00 Ry     beta=0.70
     Davidson diagonalization with overlap
     ethr =  1.71E-05,  avg # of iterations =  3.0

     negative rho (up, down):  0.204E-01 0.191E-01

     total cpu time spent up to now is     5908.6 secs

     total energy              =   -1047.64756828 Ry
     Harris-Foulkes estimate   =   -1047.64587230 Ry
     estimated scf accuracy    <       0.05133108 Ry

     total magnetization       =     0.85 Bohr mag/cell
     absolute magnetization    =     0.94 Bohr mag/cell

     iteration # 11     ecut=    50.00 Ry     beta=0.70
     Davidson diagonalization with overlap
     ethr =  1.71E-05,  avg # of iterations =  6.5

     negative rho (up, down):  0.207E-01 0.194E-01

     total cpu time spent up to now is     6297.9 secs

     total energy              =   -1047.64581638 Ry
     Harris-Foulkes estimate   =   -1047.65418498 Ry
     estimated scf accuracy    <       0.10407575 Ry

     total magnetization       =     0.82 Bohr mag/cell
     absolute magnetization    =     0.93 Bohr mag/cell

     iteration # 12     ecut=    50.00 Ry     beta=0.70
     Davidson diagonalization with overlap
     ethr =  1.71E-05,  avg # of iterations =  3.0

     negative rho (up, down):  0.209E-01 0.195E-01

     total cpu time spent up to now is     6656.8 secs

     total energy              =   -1047.64359942 Ry
     Harris-Foulkes estimate   =   -1047.64928296 Ry
     estimated scf accuracy    <       0.03489834 Ry

     total magnetization       =     0.97 Bohr mag/cell
     absolute magnetization    =     1.09 Bohr mag/cell

     iteration # 13     ecut=    50.00 Ry     beta=0.70
     Davidson diagonalization with overlap
     ethr =  1.71E-05,  avg # of iterations =  7.5

     negative rho (up, down):  0.208E-01 0.193E-01

     total cpu time spent up to now is     7024.0 secs

     total energy              =   -1047.64541927 Ry
     Harris-Foulkes estimate   =   -1047.64624826 Ry
     estimated scf accuracy    <       0.00764945 Ry

     total magnetization       =     1.00 Bohr mag/cell
     absolute magnetization    =     1.14 Bohr mag/cell

     iteration # 14     ecut=    50.00 Ry     beta=0.70
     Davidson diagonalization with overlap
     WARNING:     1 eigenvalues not converged in regterg
     c_bands:  1 eigenvalues not converged
     ethr =  3.92E-06,  avg # of iterations = 17.5

     negative rho (up, down):  0.208E-01 0.192E-01

     total cpu time spent up to now is     7516.6 secs

     total energy              =   -1047.64704708 Ry
     Harris-Foulkes estimate   =   -1047.64719262 Ry
     estimated scf accuracy    <       0.00264797 Ry

     total magnetization       =     1.00 Bohr mag/cell
     absolute magnetization    =     1.15 Bohr mag/cell

     iteration # 15     ecut=    50.00 Ry     beta=0.70
     Davidson diagonalization with overlap
     ethr =  1.36E-06,  avg # of iterations =  5.5

     negative rho (up, down):  0.208E-01 0.192E-01

     total cpu time spent up to now is     7912.3 secs

     total energy              =   -1047.64677115 Ry
     Harris-Foulkes estimate   =   -1047.64735542 Ry
     estimated scf accuracy    <       0.00225328 Ry

     total magnetization       =     1.00 Bohr mag/cell
     absolute magnetization    =     1.13 Bohr mag/cell

     iteration # 16     ecut=    50.00 Ry     beta=0.70
     Davidson diagonalization with overlap
     ethr =  1.16E-06,  avg # of iterations =  3.0

     negative rho (up, down):  0.208E-01 0.191E-01

     total cpu time spent up to now is     8289.7 secs

     total energy              =   -1047.64727908 Ry
     Harris-Foulkes estimate   =   -1047.64719292 Ry
     estimated scf accuracy    <       0.00081749 Ry

     total magnetization       =     1.00 Bohr mag/cell
     absolute magnetization    =     1.14 Bohr mag/cell

     iteration # 17     ecut=    50.00 Ry     beta=0.70
     Davidson diagonalization with overlap
     ethr =  4.19E-07,  avg # of iterations =  5.5

     negative rho (up, down):  0.208E-01 0.191E-01

     total cpu time spent up to now is     8825.4 secs

     total energy              =   -1047.64677618 Ry
     Harris-Foulkes estimate   =   -1047.64764372 Ry
     estimated scf accuracy    <       0.00188866 Ry

     total magnetization       =     1.00 Bohr mag/cell
     absolute magnetization    =     1.15 Bohr mag/cell

     iteration # 18     ecut=    50.00 Ry     beta=0.70
     Davidson diagonalization with overlap
     ethr =  4.19E-07,  avg # of iterations =  5.5

     negative rho (up, down):  0.209E-01 0.191E-01

     total cpu time spent up to now is     9373.8 secs

     total energy              =   -1047.64695721 Ry
     Harris-Foulkes estimate   =   -1047.64722902 Ry
     estimated scf accuracy    <       0.00089736 Ry

     total magnetization       =     1.00 Bohr mag/cell
     absolute magnetization    =     1.14 Bohr mag/cell

     iteration # 19     ecut=    50.00 Ry     beta=0.70
     Davidson diagonalization with overlap
     ethr =  4.19E-07,  avg # of iterations =  2.0

     negative rho (up, down):  0.209E-01 0.191E-01

     total cpu time spent up to now is     9723.3 secs

     total energy              =   -1047.64701230 Ry
     Harris-Foulkes estimate   =   -1047.64710355 Ry
     estimated scf accuracy    <       0.00030225 Ry

     total magnetization       =     1.00 Bohr mag/cell
     absolute magnetization    =     1.14 Bohr mag/cell

     iteration # 20     ecut=    50.00 Ry     beta=0.70
     Davidson diagonalization with overlap
     ethr =  1.55E-07,  avg # of iterations =  3.5

     negative rho (up, down):  0.209E-01 0.191E-01

     total cpu time spent up to now is    10077.7 secs

     total energy              =   -1047.64703299 Ry
     Harris-Foulkes estimate   =   -1047.64706629 Ry
     estimated scf accuracy    <       0.00011235 Ry

     total magnetization       =     1.00 Bohr mag/cell
     absolute magnetization    =     1.14 Bohr mag/cell

     iteration # 21     ecut=    50.00 Ry     beta=0.70
     Davidson diagonalization with overlap
     ethr =  5.76E-08,  avg # of iterations =  5.5

     negative rho (up, down):  0.208E-01 0.191E-01

     total cpu time spent up to now is    10584.0 secs

     total energy              =   -1047.64707986 Ry
     Harris-Foulkes estimate   =   -1047.64709436 Ry
     estimated scf accuracy    <       0.00005689 Ry

     total magnetization       =     1.00 Bohr mag/cell
     absolute magnetization    =     1.14 Bohr mag/cell

     iteration # 22     ecut=    50.00 Ry     beta=0.70
     Davidson diagonalization with overlap
     ethr =  2.92E-08,  avg # of iterations =  2.5

     negative rho (up, down):  0.208E-01 0.191E-01

     total cpu time spent up to now is    10934.4 secs

     total energy              =   -1047.64708624 Ry
     Harris-Foulkes estimate   =   -1047.64708958 Ry
     estimated scf accuracy    <       0.00001096 Ry

     total magnetization       =     1.00 Bohr mag/cell
     absolute magnetization    =     1.14 Bohr mag/cell

     iteration # 23     ecut=    50.00 Ry     beta=0.70
     Davidson diagonalization with overlap
     ethr =  5.62E-09,  avg # of iterations =  4.0

     negative rho (up, down):  0.208E-01 0.191E-01

     total cpu time spent up to now is    11534.1 secs

     total energy              =   -1047.64709126 Ry
     Harris-Foulkes estimate   =   -1047.64709273 Ry
     estimated scf accuracy    <       0.00000609 Ry

     total magnetization       =     1.00 Bohr mag/cell
     absolute magnetization    =     1.14 Bohr mag/cell

     iteration # 24     ecut=    50.00 Ry     beta=0.70
     Davidson diagonalization with overlap
     ethr =  3.12E-09,  avg # of iterations =  3.0

     negative rho (up, down):  0.208E-01 0.191E-01

     total cpu time spent up to now is    11896.0 secs

     total energy              =   -1047.64709150 Ry
     Harris-Foulkes estimate   =   -1047.64709188 Ry
     estimated scf accuracy    <       0.00000168 Ry

     total magnetization       =     1.00 Bohr mag/cell
     absolute magnetization    =     1.14 Bohr mag/cell

     iteration # 25     ecut=    50.00 Ry     beta=0.70
     Davidson diagonalization with overlap
     ethr =  8.61E-10,  avg # of iterations =  5.5

     negative rho (up, down):  0.208E-01 0.191E-01

     total cpu time spent up to now is    12476.4 secs

     End of self-consistent calculation

 ------ SPIN UP ------------


          k = 0.0000 0.0000 0.0000 (373215 PWs)   bands (ev):

   -25.2170 -24.8441 -24.8432 -24.1142 -23.5811 -22.5220 -22.5195 -21.7208
   -21.2226 -21.1911 -21.1903 -21.1723 -19.1299 -18.8175 -18.7953 -18.7950
   -18.6713 -18.6522 -18.6510 -18.5592 -17.7473 -17.1224 -17.1212 -15.8018
   -15.6297 -15.4704 -15.4695 -15.3069 -15.2210 -14.5931 -14.5869 -14.5858
   -14.3267 -13.5708 -13.4778 -13.4759 -13.0809 -13.0796 -12.9623 -12.3234
   -12.1233 -11.6963 -11.6428 -11.6414 -11.4210 -11.4106 -11.2939 -11.2922
   -11.1044 -11.0596 -11.0579 -10.7516 -10.5681 -10.5671 -10.5476 -10.4622
   -10.3057 -10.2977 -10.2424 -10.2413  -9.9074  -9.5269  -9.4604  -8.9600
    -8.9594  -8.8925  -8.8161  -8.7325  -8.7290  -8.5446  -8.5165  -8.4720
    -8.4704  -8.3863  -8.1458  -8.1407  -8.0843  -8.0840  -8.0169  -7.7413
    -7.3945  -7.3937  -7.1893  -7.0882  -6.8508  -6.4502  -6.4403  -6.4378
    -6.3588  -6.3409  -6.3399  -6.2676  -6.1346  -6.0176  -6.0146  -5.9388
    -4.7529  -4.7483  -3.3243  -3.3235  -1.9323  -1.7761  -1.6551  -1.5417
    -1.5394  -0.5177  -0.3428  -0.3366  -0.3348  -0.3251  -0.3244  -0.2706
    -0.1847  -0.1015  -0.0689  -0.0609   0.0521   0.1030

 ------ SPIN DOWN ----------


          k = 0.0000 0.0000 0.0000 (373215 PWs)   bands (ev):

   -25.1723 -24.8000 -24.7993 -24.0491 -23.5775 -22.4977 -22.4952 -21.6963
   -21.2020 -21.1769 -21.1759 -21.1592 -19.1231 -18.7949 -18.7742 -18.7739
   -18.6446 -18.6436 -18.6426 -18.5569 -17.7410 -17.1124 -17.1111 -15.7823
   -15.6014 -15.4487 -15.4479 -15.2964 -15.2046 -14.5776 -14.5769 -14.5547
   -14.3168 -13.5495 -13.4516 -13.4496 -13.0559 -13.0546 -12.9178 -12.2863
   -12.1152 -11.6354 -11.6342 -11.6335 -11.4012 -11.2961 -11.2676 -11.2660
   -11.0987 -11.0360 -11.0343 -10.7387 -10.5639 -10.5629 -10.5460 -10.2936
   -10.2844 -10.2718 -10.2226 -10.2215  -9.8200  -9.4625  -9.0189  -8.9527
    -8.9520  -8.8872  -8.8122  -8.7261  -8.7227  -8.5398  -8.4958  -8.3840
    -8.3505  -8.3484  -8.0482  -8.0442  -8.0327  -8.0313  -7.9748  -7.5020
    -7.1470  -7.1457  -7.1150  -6.8515  -6.7199  -6.4204  -6.4179  -6.3968
    -6.3595  -6.3411  -6.3402  -6.2646  -6.1079  -5.9259  -5.9225  -5.9114
    -4.7579  -3.6757  -3.3052  -3.3044  -1.9308  -1.7530  -1.6540  -1.5324
    -1.5303  -0.5141  -0.3445  -0.3358  -0.3341  -0.3239  -0.3230  -0.2685
    -0.1771  -0.1000  -0.0684  -0.0596   0.0383   0.0587

     the Fermi energy is    -4.1943 ev

!    total energy              =   -1047.64709228 Ry
     Harris-Foulkes estimate   =   -1047.64709252 Ry
     estimated scf accuracy    <       0.00000054 Ry

     total all-electron energy =     -6643.245770 Ry

     The total energy is the sum of the following terms:

     one-electron contribution =   -5622.30435143 Ry
     hartree contribution      =    2827.52677814 Ry
     xc contribution           =    -206.34301197 Ry
     ewald contribution        =    2329.46841765 Ry
     one-center paw contrib.   =    -375.99491094 Ry
     smearing contrib. (-TS)   =      -0.00001372 Ry

     total magnetization       =     1.00 Bohr mag/cell
     absolute magnetization    =     1.14 Bohr mag/cell

     convergence has been achieved in  25 iterations

     Writing output data file pwscf.save

     init_run     :    216.32s CPU    229.36s WALL (       1 calls)
     electrons    :  11750.64s CPU  12245.46s WALL (       1 calls)

     Called by init_run:
     wfcinit      :    170.27s CPU    175.67s WALL (       1 calls)
     potinit      :      9.70s CPU     10.34s WALL (       1 calls)

     Called by electrons:
     c_bands      :   9443.33s CPU   9690.43s WALL (      25 calls)
     sum_band     :   1314.46s CPU   1356.46s WALL (      25 calls)
     v_of_rho     :    139.25s CPU    149.59s WALL (      26 calls)
     newd         :    767.13s CPU    950.15s WALL (      26 calls)
     mix_rho      :     43.25s CPU     45.72s WALL (      25 calls)

     Called by c_bands:
     init_us_2    :     20.88s CPU     21.56s WALL (     102 calls)
     regterg      :   9386.71s CPU   9626.29s WALL (      50 calls)

     Called by *egterg:
     h_psi        :   4481.90s CPU   4681.19s WALL (     390 calls)
     s_psi        :   1694.74s CPU   1700.82s WALL (     390 calls)
     g_psi        :      4.90s CPU      4.91s WALL (     338 calls)
     rdiaghg      :     35.90s CPU     36.07s WALL (     388 calls)

     Called by h_psi:
     add_vuspsi   :   1705.63s CPU   1711.57s WALL (     390 calls)

     General routines
     calbec       :   1816.71s CPU   1824.60s WALL (     440 calls)
     fft          :    133.52s CPU    143.42s WALL (     796 calls)
     ffts         :     14.45s CPU     15.58s WALL (     102 calls)
     fftw         :   1392.74s CPU   1605.14s WALL (   20290 calls)
     interpolate  :     32.90s CPU     37.71s WALL (     102 calls)
     davcio       :      0.00s CPU     11.31s WALL (     152 calls)

     Parallel routines
     fft_scatter  :    569.75s CPU    731.75s WALL (   21188 calls)

     PAW routines
     PAW_pot      :     37.48s CPU     38.23s WALL (      26 calls)
     PAW_ddot     :      8.20s CPU      8.59s WALL (     841 calls)
     PAW_symme    :      0.37s CPU      0.39s WALL (      51 calls)

     PWSCF        :     3h19m CPU        3h27m WALL


   This run was terminated on:   6:42:42  21Nov2013            

=------------------------------------------------------------------------------=
   JOB DONE.
=------------------------------------------------------------------------------=
